(written by ASE)

5 atoms
2 atom types

0.0                      10  xlo xhi
0.0                      10  ylo yhi
0.0                      10  zlo zhi

Atoms # atomic

     1   1                       0                       0                       0
     2   2      1.0900000000000001                       0                       0
     3   2    -0.36299999999999999                    1.02                       0
     4   2    -0.36299999999999999    -0.51000000000000001     0.89000000000000001
     5   2    -0.36299999999999999    -0.51000000000000001    -0.89000000000000001
