(written by ASE)

334 atoms
2 atom types

0.0      32.494999999999997  xlo xhi
0.0      28.141495495975335  ylo yhi
0.0      52.069000000000003  zlo zhi
    -16.247499999999999                       0                       0  xy xz yz

Atoms # atomic

     1   2      11.373250000000001      6.5663489500000001      23.431049999999999
     2   1      9.7484999999999999      7.5043987999999997              22.8166358
     3   1      11.373250000000001      6.5663489500000001      25.420085799999999
     4   2      9.7484999999999999      7.5043987999999997      26.034500000000001
     5   2      11.373250000000001      6.5663489500000001                28.63795
     6   1      9.7484999999999999      7.5043987999999997      28.023535800000001
     7   1      9.7484999999999999      9.3804984999999999      20.213185800000002
     8   2      9.7484999999999999      9.3804984999999999      23.431049999999999
     9   1      8.1237499999999994             10.31854835              22.8166358
    10   1      9.7484999999999999      9.3804984999999999      25.420085799999999
    11   2      8.1237499999999994             10.31854835      26.034500000000001
    12   2      9.7484999999999999      9.3804984999999999                28.63795
    13   1      8.1237499999999994             10.31854835      28.023535800000001
    14   1      9.7484999999999999      9.3804984999999999              30.6269858
    15   2      8.1237499999999994             12.19464805      23.431049999999999
    16   1      8.1237499999999994             12.19464805      25.420085799999999
    17   2      6.4989999999999997              13.1326979      26.034500000000001
    18   2      8.1237499999999994             12.19464805                28.63795
    19   1      6.4989999999999997              13.1326979      28.023535800000001
    20   1      8.1237499999999994             12.19464805              30.6269858
    21   1      6.4989999999999997      15.008797599999999      25.420085799999999
    22   2                14.62275      4.6902492499999999      26.034500000000001
    23   1                14.62275      4.6902492499999999      28.023535800000001
    24   1                14.62275      6.5663489500000001      20.213185800000002
    25   2      12.997999999999999      7.5043987999999997                 20.8276
    26   2                14.62275      6.5663489500000001      23.431049999999999
    27   1      12.997999999999999      7.5043987999999997              22.8166358
    28   1                14.62275      6.5663489500000001      25.420085799999999
    29   2      12.997999999999999      7.5043987999999997      26.034500000000001
    30   2                14.62275      6.5663489500000001                28.63795
    31   1      12.997999999999999      7.5043987999999997      28.023535800000001
    32   1                14.62275      6.5663489500000001              30.6269858
    33   2      12.997999999999999      7.5043987999999997      31.241399999999999
    34   2      12.997999999999999      9.3804984999999999      18.224150000000002
    35   1      12.997999999999999      9.3804984999999999      20.213185800000002
    36   2      11.373250000000001             10.31854835                 20.8276
    37   2      12.997999999999999      9.3804984999999999      23.431049999999999
    38   1      11.373250000000001             10.31854835              22.8166358
    39   1      12.997999999999999      9.3804984999999999      25.420085799999999
    40   2      11.373250000000001             10.31854835      26.034500000000001
    41   2      12.997999999999999      9.3804984999999999                28.63795
    42   1      11.373250000000001             10.31854835      28.023535800000001
    43   1      12.997999999999999      9.3804984999999999              30.6269858
    44   2      11.373250000000001             10.31854835      31.241399999999999
    45   2      12.997999999999999      9.3804984999999999      33.844850000000001
    46   1      11.373250000000001             10.31854835      33.230435800000002
    47   2      11.373250000000001             12.19464805      18.224150000000002
    48   1      11.373250000000001             12.19464805      20.213185800000002
    49   2      9.7484999999999999              13.1326979                 20.8276
    50   2      11.373250000000001             12.19464805      23.431049999999999
    51   1      9.7484999999999999              13.1326979              22.8166358
    52   1      11.373250000000001             12.19464805      25.420085799999999
    53   2      9.7484999999999999              13.1326979      26.034500000000001
    54   2      11.373250000000001             12.19464805                28.63795
    55   1      9.7484999999999999              13.1326979      28.023535800000001
    56   1      11.373250000000001             12.19464805              30.6269858
    57   2      9.7484999999999999              13.1326979      31.241399999999999
    58   2      11.373250000000001             12.19464805      33.844850000000001
    59   1      9.7484999999999999              13.1326979      33.230435800000002
    60   1      9.7484999999999999      15.008797599999999      20.213185800000002
    61   2      8.1237499999999994             15.94684745                 20.8276
    62   2      9.7484999999999999      15.008797599999999      23.431049999999999
    63   1      8.1237499999999994             15.94684745              22.8166358
    64   1      9.7484999999999999      15.008797599999999      25.420085799999999
    65   2      8.1237499999999994             15.94684745      26.034500000000001
    66   2      9.7484999999999999      15.008797599999999                28.63795
    67   1      8.1237499999999994             15.94684745      28.023535800000001
    68   1      9.7484999999999999      15.008797599999999              30.6269858
    69   2      8.1237499999999994             15.94684745      31.241399999999999
    70   2      8.1237499999999994      17.822947150000001      23.431049999999999
    71   1      8.1237499999999994      17.822947150000001      25.420085799999999
    72   2      8.1237499999999994      17.822947150000001                28.63795
    73   2      17.872250000000001      4.6902492499999999      26.034500000000001
    74   1      17.872250000000001      4.6902492499999999      28.023535800000001
    75   1      17.872250000000001      6.5663489500000001      20.213185800000002
    76   2      16.247499999999999      7.5043987999999997                 20.8276
    77   2      17.872250000000001      6.5663489500000001      23.431049999999999
    78   1      16.247499999999999      7.5043987999999997              22.8166358
    79   1      17.872250000000001      6.5663489500000001      25.420085799999999
    80   2      16.247499999999999      7.5043987999999997      26.034500000000001
    81   2      17.872250000000001      6.5663489500000001                28.63795
    82   1      16.247499999999999      7.5043987999999997      28.023535800000001
    83   1      17.872250000000001      6.5663489500000001              30.6269858
    84   2      16.247499999999999      7.5043987999999997      31.241399999999999
    85   1      16.247499999999999      7.5043987999999997      33.230435800000002
    86   2      16.247499999999999      9.3804984999999999      18.224150000000002
    87   1                14.62275             10.31854835      17.609735799999999
    88   1      16.247499999999999      9.3804984999999999      20.213185800000002
    89   2                14.62275             10.31854835                 20.8276
    90   2      16.247499999999999      9.3804984999999999      23.431049999999999
    91   1                14.62275             10.31854835              22.8166358
    92   1      16.247499999999999      9.3804984999999999      25.420085799999999
    93   2                14.62275             10.31854835      26.034500000000001
    94   2      16.247499999999999      9.3804984999999999                28.63795
    95   1                14.62275             10.31854835      28.023535800000001
    96   1      16.247499999999999      9.3804984999999999              30.6269858
    97   2                14.62275             10.31854835      31.241399999999999
    98   2      16.247499999999999      9.3804984999999999      33.844850000000001
    99   1                14.62275             10.31854835      33.230435800000002
   100   2                14.62275             12.19464805      18.224150000000002
   101   1      12.997999999999999              13.1326979      17.609735799999999
   102   1                14.62275             12.19464805      20.213185800000002
   103   2      12.997999999999999              13.1326979                 20.8276
   104   2                14.62275             12.19464805      23.431049999999999
   105   1      12.997999999999999              13.1326979              22.8166358
   106   1                14.62275             12.19464805      25.420085799999999
   107   2      12.997999999999999              13.1326979      26.034500000000001
   108   2                14.62275             12.19464805                28.63795
   109   1      12.997999999999999              13.1326979      28.023535800000001
   110   1                14.62275             12.19464805              30.6269858
   111   2      12.997999999999999              13.1326979      31.241399999999999
   112   2                14.62275             12.19464805      33.844850000000001
   113   1      12.997999999999999              13.1326979      33.230435800000002
   114   2      12.997999999999999      15.008797599999999      18.224150000000002
   115   1      11.373250000000001             15.94684745      17.609735799999999
   116   1      12.997999999999999      15.008797599999999      20.213185800000002
   117   2      11.373250000000001             15.94684745                 20.8276
   118   2      12.997999999999999      15.008797599999999      23.431049999999999
   119   1      11.373250000000001             15.94684745              22.8166358
   120   1      12.997999999999999      15.008797599999999      25.420085799999999
   121   2      11.373250000000001             15.94684745      26.034500000000001
   122   2      12.997999999999999      15.008797599999999                28.63795
   123   1      11.373250000000001             15.94684745      28.023535800000001
   124   1      12.997999999999999      15.008797599999999              30.6269858
   125   2      11.373250000000001             15.94684745      31.241399999999999
   126   2      12.997999999999999      15.008797599999999      33.844850000000001
   127   1      11.373250000000001             15.94684745      33.230435800000002
   128   2      11.373250000000001      17.822947150000001      18.224150000000002
   129   1      11.373250000000001      17.822947150000001      20.213185800000002
   130   2      9.7484999999999999               18.760997                 20.8276
   131   2      11.373250000000001      17.822947150000001      23.431049999999999
   132   1      9.7484999999999999               18.760997              22.8166358
   133   1      11.373250000000001      17.822947150000001      25.420085799999999
   134   2      9.7484999999999999               18.760997      26.034500000000001
   135   2      11.373250000000001      17.822947150000001                28.63795
   136   1      9.7484999999999999               18.760997      28.023535800000001
   137   1      11.373250000000001      17.822947150000001              30.6269858
   138   2      9.7484999999999999               18.760997      31.241399999999999
   139   2      11.373250000000001      17.822947150000001      33.844850000000001
   140   2      9.7484999999999999      20.637096700000001      23.431049999999999
   141   1      9.7484999999999999      20.637096700000001      25.420085799999999
   142   2      9.7484999999999999      20.637096700000001                28.63795
   143   2                  19.497      7.5043987999999997                 20.8276
   144   2      21.121749999999999      6.5663489500000001      23.431049999999999
   145   1                  19.497      7.5043987999999997              22.8166358
   146   1      21.121749999999999      6.5663489500000001      25.420085799999999
   147   2                  19.497      7.5043987999999997      26.034500000000001
   148   2      21.121749999999999      6.5663489500000001                28.63795
   149   1                  19.497      7.5043987999999997      28.023535800000001
   150   2                  19.497      7.5043987999999997      31.241399999999999
   151   2                  19.497      9.3804984999999999      18.224150000000002
   152   1      17.872250000000001             10.31854835      17.609735799999999
   153   1                  19.497      9.3804984999999999      20.213185800000002
   154   2      17.872250000000001             10.31854835                 20.8276
   155   2                  19.497      9.3804984999999999      23.431049999999999
   156   1      17.872250000000001             10.31854835              22.8166358
   157   1                  19.497      9.3804984999999999      25.420085799999999
   158   2      17.872250000000001             10.31854835      26.034500000000001
   159   2                  19.497      9.3804984999999999                28.63795
   160   1      17.872250000000001             10.31854835      28.023535800000001
   161   1                  19.497      9.3804984999999999              30.6269858
   162   2      17.872250000000001             10.31854835      31.241399999999999
   163   2                  19.497      9.3804984999999999      33.844850000000001
   164   1      17.872250000000001             10.31854835      33.230435800000002
   165   2      17.872250000000001             12.19464805      18.224150000000002
   166   1      16.247499999999999              13.1326979      17.609735799999999
   167   1      17.872250000000001             12.19464805      20.213185800000002
   168   2      16.247499999999999              13.1326979                 20.8276
   169   2      17.872250000000001             12.19464805      23.431049999999999
   170   1      16.247499999999999              13.1326979              22.8166358
   171   1      17.872250000000001             12.19464805      25.420085799999999
   172   2      16.247499999999999              13.1326979      26.034500000000001
   173   2      17.872250000000001             12.19464805                28.63795
   174   1      16.247499999999999              13.1326979      28.023535800000001
   175   1      17.872250000000001             12.19464805              30.6269858
   176   2      16.247499999999999              13.1326979      31.241399999999999
   177   2      17.872250000000001             12.19464805      33.844850000000001
   178   1      16.247499999999999              13.1326979      33.230435800000002
   179   2      16.247499999999999      15.008797599999999      18.224150000000002
   180   1                14.62275             15.94684745      17.609735799999999
   181   1      16.247499999999999      15.008797599999999      20.213185800000002
   182   2                14.62275             15.94684745                 20.8276
   183   2      16.247499999999999      15.008797599999999      23.431049999999999
   184   1                14.62275             15.94684745              22.8166358
   185   1      16.247499999999999      15.008797599999999      25.420085799999999
   186   2                14.62275             15.94684745      26.034500000000001
   187   2      16.247499999999999      15.008797599999999                28.63795
   188   1                14.62275             15.94684745      28.023535800000001
   189   1      16.247499999999999      15.008797599999999              30.6269858
   190   2                14.62275             15.94684745      31.241399999999999
   191   2      16.247499999999999      15.008797599999999      33.844850000000001
   192   1                14.62275             15.94684745      33.230435800000002
   193   1      16.247499999999999      15.008797599999999      35.833885799999997
   194   2                14.62275      17.822947150000001      18.224150000000002
   195   1                14.62275      17.822947150000001      20.213185800000002
   196   2      12.997999999999999               18.760997                 20.8276
   197   2                14.62275      17.822947150000001      23.431049999999999
   198   1      12.997999999999999               18.760997              22.8166358
   199   1                14.62275      17.822947150000001      25.420085799999999
   200   2      12.997999999999999               18.760997      26.034500000000001
   201   2                14.62275      17.822947150000001                28.63795
   202   1      12.997999999999999               18.760997      28.023535800000001
   203   1                14.62275      17.822947150000001              30.6269858
   204   2      12.997999999999999               18.760997      31.241399999999999
   205   2                14.62275      17.822947150000001      33.844850000000001
   206   1      12.997999999999999               18.760997      33.230435800000002
   207   1      12.997999999999999      20.637096700000001      20.213185800000002
   208   2      12.997999999999999      20.637096700000001      23.431049999999999
   209   1      11.373250000000001      21.575146549999999              22.8166358
   210   1      12.997999999999999      20.637096700000001      25.420085799999999
   211   2      11.373250000000001      21.575146549999999      26.034500000000001
   212   2      12.997999999999999      20.637096700000001                28.63795
   213   1      11.373250000000001      21.575146549999999      28.023535800000001
   214   1      12.997999999999999      20.637096700000001              30.6269858
   215   1      22.746500000000001      7.5043987999999997              22.8166358
   216   2      22.746500000000001      7.5043987999999997      26.034500000000001
   217   1      22.746500000000001      7.5043987999999997      28.023535800000001
   218   1      22.746500000000001      9.3804984999999999      20.213185800000002
   219   2      21.121749999999999             10.31854835                 20.8276
   220   2      22.746500000000001      9.3804984999999999      23.431049999999999
   221   1      21.121749999999999             10.31854835              22.8166358
   222   1      22.746500000000001      9.3804984999999999      25.420085799999999
   223   2      21.121749999999999             10.31854835      26.034500000000001
   224   2      22.746500000000001      9.3804984999999999                28.63795
   225   1      21.121749999999999             10.31854835      28.023535800000001
   226   1      22.746500000000001      9.3804984999999999              30.6269858
   227   2      21.121749999999999             10.31854835      31.241399999999999
   228   1      21.121749999999999             10.31854835      33.230435800000002
   229   2      21.121749999999999             12.19464805      18.224150000000002
   230   1                  19.497              13.1326979      17.609735799999999
   231   1      21.121749999999999             12.19464805      20.213185800000002
   232   2                  19.497              13.1326979                 20.8276
   233   2      21.121749999999999             12.19464805      23.431049999999999
   234   1                  19.497              13.1326979              22.8166358
   235   1      21.121749999999999             12.19464805      25.420085799999999
   236   2                  19.497              13.1326979      26.034500000000001
   237   2      21.121749999999999             12.19464805                28.63795
   238   1                  19.497              13.1326979      28.023535800000001
   239   1      21.121749999999999             12.19464805              30.6269858
   240   2                  19.497              13.1326979      31.241399999999999
   241   2      21.121749999999999             12.19464805      33.844850000000001
   242   1                  19.497              13.1326979      33.230435800000002
   243   2                  19.497      15.008797599999999      18.224150000000002
   244   1      17.872250000000001             15.94684745      17.609735799999999
   245   1                  19.497      15.008797599999999      20.213185800000002
   246   2      17.872250000000001             15.94684745                 20.8276
   247   2                  19.497      15.008797599999999      23.431049999999999
   248   1      17.872250000000001             15.94684745              22.8166358
   249   1                  19.497      15.008797599999999      25.420085799999999
   250   2      17.872250000000001             15.94684745      26.034500000000001
   251   2                  19.497      15.008797599999999                28.63795
   252   1      17.872250000000001             15.94684745      28.023535800000001
   253   1                  19.497      15.008797599999999              30.6269858
   254   2      17.872250000000001             15.94684745      31.241399999999999
   255   2                  19.497      15.008797599999999      33.844850000000001
   256   1      17.872250000000001             15.94684745      33.230435800000002
   257   2      17.872250000000001      17.822947150000001      18.224150000000002
   258   1      16.247499999999999               18.760997      17.609735799999999
   259   1      17.872250000000001      17.822947150000001      20.213185800000002
   260   2      16.247499999999999               18.760997                 20.8276
   261   2      17.872250000000001      17.822947150000001      23.431049999999999
   262   1      16.247499999999999               18.760997              22.8166358
   263   1      17.872250000000001      17.822947150000001      25.420085799999999
   264   2      16.247499999999999               18.760997      26.034500000000001
   265   2      17.872250000000001      17.822947150000001                28.63795
   266   1      16.247499999999999               18.760997      28.023535800000001
   267   1      17.872250000000001      17.822947150000001              30.6269858
   268   2      16.247499999999999               18.760997      31.241399999999999
   269   2      17.872250000000001      17.822947150000001      33.844850000000001
   270   1      16.247499999999999               18.760997      33.230435800000002
   271   1      16.247499999999999      20.637096700000001      20.213185800000002
   272   2                14.62275      21.575146549999999                 20.8276
   273   2      16.247499999999999      20.637096700000001      23.431049999999999
   274   1                14.62275      21.575146549999999              22.8166358
   275   1      16.247499999999999      20.637096700000001      25.420085799999999
   276   2                14.62275      21.575146549999999      26.034500000000001
   277   2      16.247499999999999      20.637096700000001                28.63795
   278   1                14.62275      21.575146549999999      28.023535800000001
   279   1      16.247499999999999      20.637096700000001              30.6269858
   280   2                14.62275      21.575146549999999      31.241399999999999
   281   2                14.62275      23.451246250000001      23.431049999999999
   282   1                14.62275      23.451246250000001      25.420085799999999
   283   2                14.62275      23.451246250000001                28.63795
   284   1                24.37125             10.31854835              22.8166358
   285   2                24.37125             10.31854835      26.034500000000001
   286   1                24.37125             10.31854835      28.023535800000001
   287   2      22.746500000000001              13.1326979                 20.8276
   288   2                24.37125             12.19464805      23.431049999999999
   289   1      22.746500000000001              13.1326979              22.8166358
   290   1                24.37125             12.19464805      25.420085799999999
   291   2      22.746500000000001              13.1326979      26.034500000000001
   292   2                24.37125             12.19464805                28.63795
   293   1      22.746500000000001              13.1326979      28.023535800000001
   294   1                24.37125             12.19464805              30.6269858
   295   2      22.746500000000001              13.1326979      31.241399999999999
   296   1      22.746500000000001              13.1326979      33.230435800000002
   297   1      21.121749999999999             15.94684745      17.609735799999999
   298   1      22.746500000000001      15.008797599999999      20.213185800000002
   299   2      21.121749999999999             15.94684745                 20.8276
   300   2      22.746500000000001      15.008797599999999      23.431049999999999
   301   1      21.121749999999999             15.94684745              22.8166358
   302   1      22.746500000000001      15.008797599999999      25.420085799999999
   303   2      21.121749999999999             15.94684745      26.034500000000001
   304   2      22.746500000000001      15.008797599999999                28.63795
   305   1      21.121749999999999             15.94684745      28.023535800000001
   306   1      22.746500000000001      15.008797599999999              30.6269858
   307   2      21.121749999999999             15.94684745      31.241399999999999
   308   1      21.121749999999999             15.94684745      33.230435800000002
   309   2      21.121749999999999      17.822947150000001      18.224150000000002
   310   1      21.121749999999999      17.822947150000001      20.213185800000002
   311   2                  19.497               18.760997                 20.8276
   312   2      21.121749999999999      17.822947150000001      23.431049999999999
   313   1                  19.497               18.760997              22.8166358
   314   1      21.121749999999999      17.822947150000001      25.420085799999999
   315   2                  19.497               18.760997      26.034500000000001
   316   2      21.121749999999999      17.822947150000001                28.63795
   317   1                  19.497               18.760997      28.023535800000001
   318   1      21.121749999999999      17.822947150000001              30.6269858
   319   2                  19.497               18.760997      31.241399999999999
   320   2      21.121749999999999      17.822947150000001      33.844850000000001
   321   1                  19.497               18.760997      33.230435800000002
   322   1                  19.497      20.637096700000001      20.213185800000002
   323   2      17.872250000000001      21.575146549999999                 20.8276
   324   2                  19.497      20.637096700000001      23.431049999999999
   325   1      17.872250000000001      21.575146549999999              22.8166358
   326   1                  19.497      20.637096700000001      25.420085799999999
   327   2      17.872250000000001      21.575146549999999      26.034500000000001
   328   2                  19.497      20.637096700000001                28.63795
   329   1      17.872250000000001      21.575146549999999      28.023535800000001
   330   1                  19.497      20.637096700000001              30.6269858
   331   2      17.872250000000001      21.575146549999999      31.241399999999999
   332   2      17.872250000000001      23.451246250000001      23.431049999999999
   333   1      17.872250000000001      23.451246250000001      25.420085799999999
   334   2      17.872250000000001      23.451246250000001                28.63795
