(written by ASE)

339 atoms
4 atom types

0.0      32.494999999999997  xlo xhi
0.0      28.141495495975335  ylo yhi
0.0      52.069000000000003  zlo zhi
    -16.247499999999999                       0                       0  xy xz yz

Atoms # atomic

     1   4      11.373250000000001      6.5663489500000001      23.431049999999999
     2   3      9.7484999999999999      7.5043987999999997              22.8166358
     3   3      11.373250000000001      6.5663489500000001      25.420085799999999
     4   4      9.7484999999999999      7.5043987999999997      26.034500000000001
     5   4      11.373250000000001      6.5663489500000001                28.63795
     6   3      9.7484999999999999      7.5043987999999997      28.023535800000001
     7   3      9.7484999999999999      9.3804984999999999      20.213185800000002
     8   4      9.7484999999999999      9.3804984999999999      23.431049999999999
     9   3      8.1237499999999994             10.31854835              22.8166358
    10   3      9.7484999999999999      9.3804984999999999      25.420085799999999
    11   4      8.1237499999999994             10.31854835      26.034500000000001
    12   4      9.7484999999999999      9.3804984999999999                28.63795
    13   3      8.1237499999999994             10.31854835      28.023535800000001
    14   3      9.7484999999999999      9.3804984999999999              30.6269858
    15   4      8.1237499999999994             12.19464805      23.431049999999999
    16   3      8.1237499999999994             12.19464805      25.420085799999999
    17   4      6.4989999999999997              13.1326979      26.034500000000001
    18   4      8.1237499999999994             12.19464805                28.63795
    19   3      6.4989999999999997              13.1326979      28.023535800000001
    20   3      8.1237499999999994             12.19464805              30.6269858
    21   3      6.4989999999999997      15.008797599999999      25.420085799999999
    22   4                14.62275      4.6902492499999999      26.034500000000001
    23   3                14.62275      4.6902492499999999      28.023535800000001
    24   3                14.62275      6.5663489500000001      20.213185800000002
    25   4      12.997999999999999      7.5043987999999997                 20.8276
    26   4                14.62275      6.5663489500000001      23.431049999999999
    27   3      12.997999999999999      7.5043987999999997              22.8166358
    28   3                14.62275      6.5663489500000001      25.420085799999999
    29   4      12.997999999999999      7.5043987999999997      26.034500000000001
    30   4                14.62275      6.5663489500000001                28.63795
    31   3      12.997999999999999      7.5043987999999997      28.023535800000001
    32   3                14.62275      6.5663489500000001              30.6269858
    33   4      12.997999999999999      7.5043987999999997      31.241399999999999
    34   4      12.997999999999999      9.3804984999999999      18.224150000000002
    35   3      12.997999999999999      9.3804984999999999      20.213185800000002
    36   4      11.373250000000001             10.31854835                 20.8276
    37   4      12.997999999999999      9.3804984999999999      23.431049999999999
    38   3      11.373250000000001             10.31854835              22.8166358
    39   3      12.997999999999999      9.3804984999999999      25.420085799999999
    40   4      11.373250000000001             10.31854835      26.034500000000001
    41   4      12.997999999999999      9.3804984999999999                28.63795
    42   3      11.373250000000001             10.31854835      28.023535800000001
    43   3      12.997999999999999      9.3804984999999999              30.6269858
    44   4      11.373250000000001             10.31854835      31.241399999999999
    45   4      12.997999999999999      9.3804984999999999      33.844850000000001
    46   3      11.373250000000001             10.31854835      33.230435800000002
    47   4      11.373250000000001             12.19464805      18.224150000000002
    48   3      11.373250000000001             12.19464805      20.213185800000002
    49   4      9.7484999999999999              13.1326979                 20.8276
    50   4      11.373250000000001             12.19464805      23.431049999999999
    51   3      9.7484999999999999              13.1326979              22.8166358
    52   3      11.373250000000001             12.19464805      25.420085799999999
    53   4      9.7484999999999999              13.1326979      26.034500000000001
    54   4      11.373250000000001             12.19464805                28.63795
    55   3      9.7484999999999999              13.1326979      28.023535800000001
    56   3      11.373250000000001             12.19464805              30.6269858
    57   4      9.7484999999999999              13.1326979      31.241399999999999
    58   4      11.373250000000001             12.19464805      33.844850000000001
    59   3      9.7484999999999999              13.1326979      33.230435800000002
    60   3      9.7484999999999999      15.008797599999999      20.213185800000002
    61   4      8.1237499999999994             15.94684745                 20.8276
    62   4      9.7484999999999999      15.008797599999999      23.431049999999999
    63   3      8.1237499999999994             15.94684745              22.8166358
    64   3      9.7484999999999999      15.008797599999999      25.420085799999999
    65   4      8.1237499999999994             15.94684745      26.034500000000001
    66   4      9.7484999999999999      15.008797599999999                28.63795
    67   3      8.1237499999999994             15.94684745      28.023535800000001
    68   3      9.7484999999999999      15.008797599999999              30.6269858
    69   4      8.1237499999999994             15.94684745      31.241399999999999
    70   4      8.1237499999999994      17.822947150000001      23.431049999999999
    71   3      8.1237499999999994      17.822947150000001      25.420085799999999
    72   4      8.1237499999999994      17.822947150000001                28.63795
    73   4      17.872250000000001      4.6902492499999999      26.034500000000001
    74   3      17.872250000000001      4.6902492499999999      28.023535800000001
    75   3      17.872250000000001      6.5663489500000001      20.213185800000002
    76   4      16.247499999999999      7.5043987999999997                 20.8276
    77   4      17.872250000000001      6.5663489500000001      23.431049999999999
    78   3      16.247499999999999      7.5043987999999997              22.8166358
    79   3      17.872250000000001      6.5663489500000001      25.420085799999999
    80   4      16.247499999999999      7.5043987999999997      26.034500000000001
    81   4      17.872250000000001      6.5663489500000001                28.63795
    82   3      16.247499999999999      7.5043987999999997      28.023535800000001
    83   3      17.872250000000001      6.5663489500000001              30.6269858
    84   4      16.247499999999999      7.5043987999999997      31.241399999999999
    85   3      16.247499999999999      7.5043987999999997      33.230435800000002
    86   4      16.247499999999999      9.3804984999999999      18.224150000000002
    87   3                14.62275             10.31854835      17.609735799999999
    88   3      16.247499999999999      9.3804984999999999      20.213185800000002
    89   4                14.62275             10.31854835                 20.8276
    90   4      16.247499999999999      9.3804984999999999      23.431049999999999
    91   3                14.62275             10.31854835              22.8166358
    92   3      16.247499999999999      9.3804984999999999      25.420085799999999
    93   4                14.62275             10.31854835      26.034500000000001
    94   4      16.247499999999999      9.3804984999999999                28.63795
    95   3                14.62275             10.31854835      28.023535800000001
    96   3      16.247499999999999      9.3804984999999999              30.6269858
    97   4                14.62275             10.31854835      31.241399999999999
    98   4      16.247499999999999      9.3804984999999999      33.844850000000001
    99   3                14.62275             10.31854835      33.230435800000002
   100   4                14.62275             12.19464805      18.224150000000002
   101   3      12.997999999999999              13.1326979      17.609735799999999
   102   3                14.62275             12.19464805      20.213185800000002
   103   4      12.997999999999999              13.1326979                 20.8276
   104   4                14.62275             12.19464805      23.431049999999999
   105   3      12.997999999999999              13.1326979              22.8166358
   106   3                14.62275             12.19464805      25.420085799999999
   107   4      12.997999999999999              13.1326979      26.034500000000001
   108   4                14.62275             12.19464805                28.63795
   109   3      12.997999999999999              13.1326979      28.023535800000001
   110   3                14.62275             12.19464805              30.6269858
   111   4      12.997999999999999              13.1326979      31.241399999999999
   112   4                14.62275             12.19464805      33.844850000000001
   113   3      12.997999999999999              13.1326979      33.230435800000002
   114   4      12.997999999999999      15.008797599999999      18.224150000000002
   115   3      11.373250000000001             15.94684745      17.609735799999999
   116   3      12.997999999999999      15.008797599999999      20.213185800000002
   117   4      11.373250000000001             15.94684745                 20.8276
   118   4      12.997999999999999      15.008797599999999      23.431049999999999
   119   3      11.373250000000001             15.94684745              22.8166358
   120   3      12.997999999999999      15.008797599999999      25.420085799999999
   121   4      11.373250000000001             15.94684745      26.034500000000001
   122   4      12.997999999999999      15.008797599999999                28.63795
   123   3      11.373250000000001             15.94684745      28.023535800000001
   124   3      12.997999999999999      15.008797599999999              30.6269858
   125   4      11.373250000000001             15.94684745      31.241399999999999
   126   4      12.997999999999999      15.008797599999999      33.844850000000001
   127   3      11.373250000000001             15.94684745      33.230435800000002
   128   4      11.373250000000001      17.822947150000001      18.224150000000002
   129   3      11.373250000000001      17.822947150000001      20.213185800000002
   130   4      9.7484999999999999               18.760997                 20.8276
   131   4      11.373250000000001      17.822947150000001      23.431049999999999
   132   3      9.7484999999999999               18.760997              22.8166358
   133   3      11.373250000000001      17.822947150000001      25.420085799999999
   134   4      9.7484999999999999               18.760997      26.034500000000001
   135   4      11.373250000000001      17.822947150000001                28.63795
   136   3      9.7484999999999999               18.760997      28.023535800000001
   137   3      11.373250000000001      17.822947150000001              30.6269858
   138   4      9.7484999999999999               18.760997      31.241399999999999
   139   4      11.373250000000001      17.822947150000001      33.844850000000001
   140   4      9.7484999999999999      20.637096700000001      23.431049999999999
   141   3      9.7484999999999999      20.637096700000001      25.420085799999999
   142   4      9.7484999999999999      20.637096700000001                28.63795
   143   4                  19.497      7.5043987999999997                 20.8276
   144   4      21.121749999999999      6.5663489500000001      23.431049999999999
   145   3                  19.497      7.5043987999999997              22.8166358
   146   3      21.121749999999999      6.5663489500000001      25.420085799999999
   147   4                  19.497      7.5043987999999997      26.034500000000001
   148   4      21.121749999999999      6.5663489500000001                28.63795
   149   3                  19.497      7.5043987999999997      28.023535800000001
   150   4                  19.497      7.5043987999999997      31.241399999999999
   151   4                  19.497      9.3804984999999999      18.224150000000002
   152   3      17.872250000000001             10.31854835      17.609735799999999
   153   3                  19.497      9.3804984999999999      20.213185800000002
   154   4      17.872250000000001             10.31854835                 20.8276
   155   4                  19.497      9.3804984999999999      23.431049999999999
   156   3      17.872250000000001             10.31854835              22.8166358
   157   3                  19.497      9.3804984999999999      25.420085799999999
   158   4      17.872250000000001             10.31854835      26.034500000000001
   159   4                  19.497      9.3804984999999999                28.63795
   160   3      17.872250000000001             10.31854835      28.023535800000001
   161   3                  19.497      9.3804984999999999              30.6269858
   162   4      17.872250000000001             10.31854835      31.241399999999999
   163   4                  19.497      9.3804984999999999      33.844850000000001
   164   3      17.872250000000001             10.31854835      33.230435800000002
   165   4      17.872250000000001             12.19464805      18.224150000000002
   166   3      16.247499999999999              13.1326979      17.609735799999999
   167   3      17.872250000000001             12.19464805      20.213185800000002
   168   4      16.247499999999999              13.1326979                 20.8276
   169   4      17.872250000000001             12.19464805      23.431049999999999
   170   3      16.247499999999999              13.1326979              22.8166358
   171   3      17.872250000000001             12.19464805      25.420085799999999
   172   4      16.247499999999999              13.1326979      26.034500000000001
   173   4      17.872250000000001             12.19464805                28.63795
   174   3      16.247499999999999              13.1326979      28.023535800000001
   175   3      17.872250000000001             12.19464805              30.6269858
   176   4      16.247499999999999              13.1326979      31.241399999999999
   177   4      17.872250000000001             12.19464805      33.844850000000001
   178   3      16.247499999999999              13.1326979      33.230435800000002
   179   4      16.247499999999999      15.008797599999999      18.224150000000002
   180   3                14.62275             15.94684745      17.609735799999999
   181   3      16.247499999999999      15.008797599999999      20.213185800000002
   182   4                14.62275             15.94684745                 20.8276
   183   4      16.247499999999999      15.008797599999999      23.431049999999999
   184   3                14.62275             15.94684745              22.8166358
   185   3      16.247499999999999      15.008797599999999      25.420085799999999
   186   4                14.62275             15.94684745      26.034500000000001
   187   4      16.247499999999999      15.008797599999999                28.63795
   188   3                14.62275             15.94684745      28.023535800000001
   189   3      16.247499999999999      15.008797599999999              30.6269858
   190   4                14.62275             15.94684745      31.241399999999999
   191   4      16.247499999999999      15.008797599999999      33.844850000000001
   192   3                14.62275             15.94684745      33.230435800000002
   193   3      16.247499999999999      15.008797599999999      35.833885799999997
   194   4                14.62275      17.822947150000001      18.224150000000002
   195   3                14.62275      17.822947150000001      20.213185800000002
   196   4      12.997999999999999               18.760997                 20.8276
   197   4                14.62275      17.822947150000001      23.431049999999999
   198   3      12.997999999999999               18.760997              22.8166358
   199   3                14.62275      17.822947150000001      25.420085799999999
   200   4      12.997999999999999               18.760997      26.034500000000001
   201   4                14.62275      17.822947150000001                28.63795
   202   3      12.997999999999999               18.760997      28.023535800000001
   203   3                14.62275      17.822947150000001              30.6269858
   204   4      12.997999999999999               18.760997      31.241399999999999
   205   4                14.62275      17.822947150000001      33.844850000000001
   206   3      12.997999999999999               18.760997      33.230435800000002
   207   3      12.997999999999999      20.637096700000001      20.213185800000002
   208   4      12.997999999999999      20.637096700000001      23.431049999999999
   209   3      11.373250000000001      21.575146549999999              22.8166358
   210   3      12.997999999999999      20.637096700000001      25.420085799999999
   211   4      11.373250000000001      21.575146549999999      26.034500000000001
   212   4      12.997999999999999      20.637096700000001                28.63795
   213   3      11.373250000000001      21.575146549999999      28.023535800000001
   214   3      12.997999999999999      20.637096700000001              30.6269858
   215   3      22.746500000000001      7.5043987999999997              22.8166358
   216   4      22.746500000000001      7.5043987999999997      26.034500000000001
   217   3      22.746500000000001      7.5043987999999997      28.023535800000001
   218   3      22.746500000000001      9.3804984999999999      20.213185800000002
   219   4      21.121749999999999             10.31854835                 20.8276
   220   4      22.746500000000001      9.3804984999999999      23.431049999999999
   221   3      21.121749999999999             10.31854835              22.8166358
   222   3      22.746500000000001      9.3804984999999999      25.420085799999999
   223   4      21.121749999999999             10.31854835      26.034500000000001
   224   4      22.746500000000001      9.3804984999999999                28.63795
   225   3      21.121749999999999             10.31854835      28.023535800000001
   226   3      22.746500000000001      9.3804984999999999              30.6269858
   227   4      21.121749999999999             10.31854835      31.241399999999999
   228   3      21.121749999999999             10.31854835      33.230435800000002
   229   4      21.121749999999999             12.19464805      18.224150000000002
   230   3                  19.497              13.1326979      17.609735799999999
   231   3      21.121749999999999             12.19464805      20.213185800000002
   232   4                  19.497              13.1326979                 20.8276
   233   4      21.121749999999999             12.19464805      23.431049999999999
   234   3                  19.497              13.1326979              22.8166358
   235   3      21.121749999999999             12.19464805      25.420085799999999
   236   4                  19.497              13.1326979      26.034500000000001
   237   4      21.121749999999999             12.19464805                28.63795
   238   3                  19.497              13.1326979      28.023535800000001
   239   3      21.121749999999999             12.19464805              30.6269858
   240   4                  19.497              13.1326979      31.241399999999999
   241   4      21.121749999999999             12.19464805      33.844850000000001
   242   3                  19.497              13.1326979      33.230435800000002
   243   4                  19.497      15.008797599999999      18.224150000000002
   244   3      17.872250000000001             15.94684745      17.609735799999999
   245   3                  19.497      15.008797599999999      20.213185800000002
   246   4      17.872250000000001             15.94684745                 20.8276
   247   4                  19.497      15.008797599999999      23.431049999999999
   248   3      17.872250000000001             15.94684745              22.8166358
   249   3                  19.497      15.008797599999999      25.420085799999999
   250   4      17.872250000000001             15.94684745      26.034500000000001
   251   4                  19.497      15.008797599999999                28.63795
   252   3      17.872250000000001             15.94684745      28.023535800000001
   253   3                  19.497      15.008797599999999              30.6269858
   254   4      17.872250000000001             15.94684745      31.241399999999999
   255   4                  19.497      15.008797599999999      33.844850000000001
   256   3      17.872250000000001             15.94684745      33.230435800000002
   257   4      17.872250000000001      17.822947150000001      18.224150000000002
   258   3      16.247499999999999               18.760997      17.609735799999999
   259   3      17.872250000000001      17.822947150000001      20.213185800000002
   260   4      16.247499999999999               18.760997                 20.8276
   261   4      17.872250000000001      17.822947150000001      23.431049999999999
   262   3      16.247499999999999               18.760997              22.8166358
   263   3      17.872250000000001      17.822947150000001      25.420085799999999
   264   4      16.247499999999999               18.760997      26.034500000000001
   265   4      17.872250000000001      17.822947150000001                28.63795
   266   3      16.247499999999999               18.760997      28.023535800000001
   267   3      17.872250000000001      17.822947150000001              30.6269858
   268   4      16.247499999999999               18.760997      31.241399999999999
   269   4      17.872250000000001      17.822947150000001      33.844850000000001
   270   3      16.247499999999999               18.760997      33.230435800000002
   271   3      16.247499999999999      20.637096700000001      20.213185800000002
   272   4                14.62275      21.575146549999999                 20.8276
   273   4      16.247499999999999      20.637096700000001      23.431049999999999
   274   3                14.62275      21.575146549999999              22.8166358
   275   3      16.247499999999999      20.637096700000001      25.420085799999999
   276   4                14.62275      21.575146549999999      26.034500000000001
   277   4      16.247499999999999      20.637096700000001                28.63795
   278   3                14.62275      21.575146549999999      28.023535800000001
   279   3      16.247499999999999      20.637096700000001              30.6269858
   280   4                14.62275      21.575146549999999      31.241399999999999
   281   4                14.62275      23.451246250000001      23.431049999999999
   282   3                14.62275      23.451246250000001      25.420085799999999
   283   4                14.62275      23.451246250000001                28.63795
   284   3                24.37125             10.31854835              22.8166358
   285   4                24.37125             10.31854835      26.034500000000001
   286   3                24.37125             10.31854835      28.023535800000001
   287   4      22.746500000000001              13.1326979                 20.8276
   288   4                24.37125             12.19464805      23.431049999999999
   289   3      22.746500000000001              13.1326979              22.8166358
   290   3                24.37125             12.19464805      25.420085799999999
   291   4      22.746500000000001              13.1326979      26.034500000000001
   292   4                24.37125             12.19464805                28.63795
   293   3      22.746500000000001              13.1326979      28.023535800000001
   294   3                24.37125             12.19464805              30.6269858
   295   4      22.746500000000001              13.1326979      31.241399999999999
   296   3      22.746500000000001              13.1326979      33.230435800000002
   297   3      21.121749999999999             15.94684745      17.609735799999999
   298   3      22.746500000000001      15.008797599999999      20.213185800000002
   299   4      21.121749999999999             15.94684745                 20.8276
   300   4      22.746500000000001      15.008797599999999      23.431049999999999
   301   3      21.121749999999999             15.94684745              22.8166358
   302   3      22.746500000000001      15.008797599999999      25.420085799999999
   303   4      21.121749999999999             15.94684745      26.034500000000001
   304   4      22.746500000000001      15.008797599999999                28.63795
   305   3      21.121749999999999             15.94684745      28.023535800000001
   306   3      22.746500000000001      15.008797599999999              30.6269858
   307   4      21.121749999999999             15.94684745      31.241399999999999
   308   3      21.121749999999999             15.94684745      33.230435800000002
   309   4      21.121749999999999      17.822947150000001      18.224150000000002
   310   3      21.121749999999999      17.822947150000001      20.213185800000002
   311   4                  19.497               18.760997                 20.8276
   312   4      21.121749999999999      17.822947150000001      23.431049999999999
   313   3                  19.497               18.760997              22.8166358
   314   3      21.121749999999999      17.822947150000001      25.420085799999999
   315   4                  19.497               18.760997      26.034500000000001
   316   4      21.121749999999999      17.822947150000001                28.63795
   317   3                  19.497               18.760997      28.023535800000001
   318   3      21.121749999999999      17.822947150000001              30.6269858
   319   4                  19.497               18.760997      31.241399999999999
   320   4      21.121749999999999      17.822947150000001      33.844850000000001
   321   3                  19.497               18.760997      33.230435800000002
   322   3                  19.497      20.637096700000001      20.213185800000002
   323   4      17.872250000000001      21.575146549999999                 20.8276
   324   4                  19.497      20.637096700000001      23.431049999999999
   325   3      17.872250000000001      21.575146549999999              22.8166358
   326   3                  19.497      20.637096700000001      25.420085799999999
   327   4      17.872250000000001      21.575146549999999      26.034500000000001
   328   4                  19.497      20.637096700000001                28.63795
   329   3      17.872250000000001      21.575146549999999      28.023535800000001
   330   3                  19.497      20.637096700000001              30.6269858
   331   4      17.872250000000001      21.575146549999999      31.241399999999999
   332   4      17.872250000000001      23.451246250000001      23.431049999999999
   333   3      17.872250000000001      23.451246250000001      25.420085799999999
   334   4      17.872250000000001      23.451246250000001                28.63795
   335   1      15.765912425149729      13.848873683682632      40.833885799999997
   336   2      16.855912425149729      13.848873683682632      40.833885799999997
   337   2      15.402912425149729      14.868873683682631      40.833885799999997
   338   2      15.402912425149729      13.338873683682632      41.723885799999998
   339   2      15.402912425149729      13.338873683682632      39.943885799999997
