(written by ASE)

186 atoms
4 atom types

0.0      37.850000000000001  xlo xhi
0.0      37.850000000000001  ylo yhi
0.0      95.139999999999986  zlo zhi

Atoms # atomic

     1   3      9.4625000000000004      17.032499999999999      46.380749999999999
     2   4      9.4625000000000004      17.032499999999999      49.948500000000003
     3   3      9.4625000000000004      20.817499999999999      46.380749999999999
     4   4      9.4625000000000004      20.817499999999999      49.948500000000003
     5   3                 13.2475                 13.2475      46.380749999999999
     6   4                 13.2475                 13.2475      49.948500000000003
     7   4                 13.2475      17.032499999999999                 40.4345
     8   3                 13.2475      15.140000000000001      44.002249999999997
     9   3                  11.355      17.032499999999999      44.002249999999997
    10   3                 13.2475      17.032499999999999      46.380749999999999
    11   4                  11.355      15.140000000000001                   47.57
    12   4                 13.2475      17.032499999999999      49.948500000000003
    13   3                 13.2475      15.140000000000001      53.516249999999999
    14   3                  11.355      17.032499999999999      53.516249999999999
    15   3                  11.355      15.140000000000001      48.759250000000002
    16   4                 13.2475      20.817499999999999                 40.4345
    17   3                 13.2475      18.925000000000001      44.002249999999997
    18   3                  11.355      20.817499999999999      44.002249999999997
    19   3                 13.2475      20.817499999999999      46.380749999999999
    20   4                  11.355      18.925000000000001                   47.57
    21   4                 13.2475      20.817499999999999      49.948500000000003
    22   3                 13.2475      18.925000000000001      53.516249999999999
    23   3                  11.355      20.817499999999999      53.516249999999999
    24   3                  11.355      18.925000000000001      48.759250000000002
    25   3                 13.2475      22.710000000000001      44.002249999999997
    26   3                 13.2475      24.602499999999999      46.380749999999999
    27   4                  11.355      22.710000000000001                   47.57
    28   4                 13.2475      24.602499999999999      49.948500000000003
    29   3                 13.2475      22.710000000000001      53.516249999999999
    30   3                  11.355      22.710000000000001      48.759250000000002
    31   3      17.032499999999999      9.4625000000000004      46.380749999999999
    32   4      17.032499999999999      9.4625000000000004      49.948500000000003
    33   4      17.032499999999999                 13.2475                 40.4345
    34   3      17.032499999999999                  11.355      44.002249999999997
    35   3      15.140000000000001                 13.2475      44.002249999999997
    36   3      17.032499999999999                 13.2475      46.380749999999999
    37   4      15.140000000000001                  11.355                   47.57
    38   4      17.032499999999999                 13.2475      49.948500000000003
    39   3      17.032499999999999                  11.355      53.516249999999999
    40   3      15.140000000000001                 13.2475      53.516249999999999
    41   3      15.140000000000001                  11.355      48.759250000000002
    42   4      17.032499999999999      17.032499999999999                 40.4345
    43   3      17.032499999999999      15.140000000000001      44.002249999999997
    44   3      15.140000000000001      17.032499999999999      44.002249999999997
    45   3      17.032499999999999      17.032499999999999      46.380749999999999
    46   3      15.140000000000001      15.140000000000001      39.245249999999999
    47   4      15.140000000000001      15.140000000000001                   47.57
    48   4      17.032499999999999      17.032499999999999      49.948500000000003
    49   3      17.032499999999999      15.140000000000001      53.516249999999999
    50   3      15.140000000000001      17.032499999999999      53.516249999999999
    51   3      17.032499999999999      17.032499999999999      55.894750000000002
    52   3      15.140000000000001      15.140000000000001      48.759250000000002
    53   4      17.032499999999999      20.817499999999999                 40.4345
    54   3      17.032499999999999      18.925000000000001      44.002249999999997
    55   3      15.140000000000001      20.817499999999999      44.002249999999997
    56   3      17.032499999999999      20.817499999999999      46.380749999999999
    57   3      15.140000000000001      18.925000000000001      39.245249999999999
    58   4      15.140000000000001      18.925000000000001                   47.57
    59   4      17.032499999999999      20.817499999999999      49.948500000000003
    60   3      17.032499999999999      18.925000000000001      53.516249999999999
    61   3      15.140000000000001      20.817499999999999      53.516249999999999
    62   3      17.032499999999999      20.817499999999999      55.894750000000002
    63   3      15.140000000000001      18.925000000000001      48.759250000000002
    64   4      17.032499999999999      24.602499999999999                 40.4345
    65   3      17.032499999999999      22.710000000000001      44.002249999999997
    66   3      15.140000000000001      24.602499999999999      44.002249999999997
    67   3      17.032499999999999      24.602499999999999      46.380749999999999
    68   3      15.140000000000001      22.710000000000001      39.245249999999999
    69   4      15.140000000000001      22.710000000000001                   47.57
    70   4      17.032499999999999      24.602499999999999      49.948500000000003
    71   3      17.032499999999999      22.710000000000001      53.516249999999999
    72   3      15.140000000000001      24.602499999999999      53.516249999999999
    73   3      15.140000000000001      22.710000000000001      48.759250000000002
    74   3      17.032499999999999      26.495000000000001      44.002249999999997
    75   3      17.032499999999999      28.387499999999999      46.380749999999999
    76   4      15.140000000000001      26.495000000000001                   47.57
    77   4      17.032499999999999      28.387499999999999      49.948500000000003
    78   3      17.032499999999999      26.495000000000001      53.516249999999999
    79   3      15.140000000000001      26.495000000000001      48.759250000000002
    80   3      20.817499999999999      9.4625000000000004      46.380749999999999
    81   4      20.817499999999999      9.4625000000000004      49.948500000000003
    82   4      20.817499999999999                 13.2475                 40.4345
    83   3      20.817499999999999                  11.355      44.002249999999997
    84   3      18.925000000000001                 13.2475      44.002249999999997
    85   3      20.817499999999999                 13.2475      46.380749999999999
    86   4      18.925000000000001                  11.355                   47.57
    87   4      20.817499999999999                 13.2475      49.948500000000003
    88   3      20.817499999999999                  11.355      53.516249999999999
    89   3      18.925000000000001                 13.2475      53.516249999999999
    90   3      18.925000000000001                  11.355      48.759250000000002
    91   4      20.817499999999999      17.032499999999999                 40.4345
    92   3      20.817499999999999      15.140000000000001      44.002249999999997
    93   3      18.925000000000001      17.032499999999999      44.002249999999997
    94   3      20.817499999999999      17.032499999999999      46.380749999999999
    95   3      18.925000000000001      15.140000000000001      39.245249999999999
    96   4      18.925000000000001      15.140000000000001                   47.57
    97   4      20.817499999999999      17.032499999999999      49.948500000000003
    98   3      20.817499999999999      15.140000000000001      53.516249999999999
    99   3      18.925000000000001      17.032499999999999      53.516249999999999
   100   3      20.817499999999999      17.032499999999999      55.894750000000002
   101   3      18.925000000000001      15.140000000000001      48.759250000000002
   102   4      18.925000000000001      18.925000000000001      38.055999999999997
   103   4      20.817499999999999      20.817499999999999                 40.4345
   104   3      20.817499999999999      18.925000000000001      44.002249999999997
   105   3      18.925000000000001      20.817499999999999      44.002249999999997
   106   3      20.817499999999999      20.817499999999999      46.380749999999999
   107   3      18.925000000000001      18.925000000000001      39.245249999999999
   108   4      18.925000000000001      18.925000000000001                   47.57
   109   4      20.817499999999999      20.817499999999999      49.948500000000003
   110   3      20.817499999999999      18.925000000000001      53.516249999999999
   111   3      18.925000000000001      20.817499999999999      53.516249999999999
   112   3      20.817499999999999      20.817499999999999      55.894750000000002
   113   3      18.925000000000001      18.925000000000001      48.759250000000002
   114   4      18.925000000000001      18.925000000000001      57.084000000000003
   115   4      20.817499999999999      24.602499999999999                 40.4345
   116   3      20.817499999999999      22.710000000000001      44.002249999999997
   117   3      18.925000000000001      24.602499999999999      44.002249999999997
   118   3      20.817499999999999      24.602499999999999      46.380749999999999
   119   3      18.925000000000001      22.710000000000001      39.245249999999999
   120   4      18.925000000000001      22.710000000000001                   47.57
   121   4      20.817499999999999      24.602499999999999      49.948500000000003
   122   3      20.817499999999999      22.710000000000001      53.516249999999999
   123   3      18.925000000000001      24.602499999999999      53.516249999999999
   124   3      18.925000000000001      22.710000000000001      48.759250000000002
   125   3      20.817499999999999      26.495000000000001      44.002249999999997
   126   3      20.817499999999999      28.387499999999999      46.380749999999999
   127   4      18.925000000000001      26.495000000000001                   47.57
   128   4      20.817499999999999      28.387499999999999      49.948500000000003
   129   3      20.817499999999999      26.495000000000001      53.516249999999999
   130   3      18.925000000000001      26.495000000000001      48.759250000000002
   131   3      22.710000000000001                 13.2475      44.002249999999997
   132   3      24.602499999999999                 13.2475      46.380749999999999
   133   4      22.710000000000001                  11.355                   47.57
   134   4      24.602499999999999                 13.2475      49.948500000000003
   135   3      22.710000000000001                 13.2475      53.516249999999999
   136   3      22.710000000000001                  11.355      48.759250000000002
   137   4      24.602499999999999      17.032499999999999                 40.4345
   138   3      24.602499999999999      15.140000000000001      44.002249999999997
   139   3      22.710000000000001      17.032499999999999      44.002249999999997
   140   3      24.602499999999999      17.032499999999999      46.380749999999999
   141   3      22.710000000000001      15.140000000000001      39.245249999999999
   142   4      22.710000000000001      15.140000000000001                   47.57
   143   4      24.602499999999999      17.032499999999999      49.948500000000003
   144   3      24.602499999999999      15.140000000000001      53.516249999999999
   145   3      22.710000000000001      17.032499999999999      53.516249999999999
   146   3      22.710000000000001      15.140000000000001      48.759250000000002
   147   4      24.602499999999999      20.817499999999999                 40.4345
   148   3      24.602499999999999      18.925000000000001      44.002249999999997
   149   3      22.710000000000001      20.817499999999999      44.002249999999997
   150   3      24.602499999999999      20.817499999999999      46.380749999999999
   151   3      22.710000000000001      18.925000000000001      39.245249999999999
   152   4      22.710000000000001      18.925000000000001                   47.57
   153   4      24.602499999999999      20.817499999999999      49.948500000000003
   154   3      24.602499999999999      18.925000000000001      53.516249999999999
   155   3      22.710000000000001      20.817499999999999      53.516249999999999
   156   3      22.710000000000001      18.925000000000001      48.759250000000002
   157   3      24.602499999999999      22.710000000000001      44.002249999999997
   158   3      22.710000000000001      24.602499999999999      44.002249999999997
   159   3      24.602499999999999      24.602499999999999      46.380749999999999
   160   3      22.710000000000001      22.710000000000001      39.245249999999999
   161   4      22.710000000000001      22.710000000000001                   47.57
   162   4      24.602499999999999      24.602499999999999      49.948500000000003
   163   3      24.602499999999999      22.710000000000001      53.516249999999999
   164   3      22.710000000000001      24.602499999999999      53.516249999999999
   165   3      22.710000000000001      22.710000000000001      48.759250000000002
   166   4      22.710000000000001      26.495000000000001                   47.57
   167   3      22.710000000000001      26.495000000000001      48.759250000000002
   168   3      26.495000000000001      17.032499999999999      44.002249999999997
   169   3      28.387499999999999      17.032499999999999      46.380749999999999
   170   4      26.495000000000001      15.140000000000001                   47.57
   171   4      28.387499999999999      17.032499999999999      49.948500000000003
   172   3      26.495000000000001      17.032499999999999      53.516249999999999
   173   3      26.495000000000001      15.140000000000001      48.759250000000002
   174   3      26.495000000000001      20.817499999999999      44.002249999999997
   175   3      28.387499999999999      20.817499999999999      46.380749999999999
   176   4      26.495000000000001      18.925000000000001                   47.57
   177   4      28.387499999999999      20.817499999999999      49.948500000000003
   178   3      26.495000000000001      20.817499999999999      53.516249999999999
   179   3      26.495000000000001      18.925000000000001      48.759250000000002
   180   4      26.495000000000001      22.710000000000001                   47.57
   181   3      26.495000000000001      22.710000000000001      48.759250000000002
   182   1      18.925000000000011      18.924999999999997      62.084000000000003
   183   2      20.015000000000011      18.924999999999997      62.084000000000003
   184   2      18.562000000000012      19.944999999999997      62.084000000000003
   185   2      18.562000000000012      18.414999999999996      62.974000000000004
   186   2      18.562000000000012      18.414999999999996      61.194000000000003
