(written by ASE)

186 atoms
5 atom types

0.0      37.850000000000001  xlo xhi
0.0      37.850000000000001  ylo yhi
0.0      95.139999999999986  zlo zhi

Atoms # atomic

     1   4      9.4625000000000004      17.032499999999999      46.380749999999999
     2   5      9.4625000000000004      17.032499999999999      49.948500000000003
     3   4      9.4625000000000004      20.817499999999999      46.380749999999999
     4   5      9.4625000000000004      20.817499999999999      49.948500000000003
     5   4                 13.2475                 13.2475      46.380749999999999
     6   2                 13.2475                 13.2475      49.948500000000003
     7   5                 13.2475      17.032499999999999                 40.4345
     8   4                 13.2475      15.140000000000001      44.002249999999997
     9   4                  11.355      17.032499999999999      44.002249999999997
    10   4                 13.2475      17.032499999999999      46.380749999999999
    11   5                  11.355      15.140000000000001                   47.57
    12   5                 13.2475      17.032499999999999      49.948500000000003
    13   4                 13.2475      15.140000000000001      53.516249999999999
    14   4                  11.355      17.032499999999999      53.516249999999999
    15   4                  11.355      15.140000000000001      48.759250000000002
    16   5                 13.2475      20.817499999999999                 40.4345
    17   4                 13.2475      18.925000000000001      44.002249999999997
    18   4                  11.355      20.817499999999999      44.002249999999997
    19   4                 13.2475      20.817499999999999      46.380749999999999
    20   5                  11.355      18.925000000000001                   47.57
    21   5                 13.2475      20.817499999999999      49.948500000000003
    22   4                 13.2475      18.925000000000001      53.516249999999999
    23   4                  11.355      20.817499999999999      53.516249999999999
    24   4                  11.355      18.925000000000001      48.759250000000002
    25   4                 13.2475      22.710000000000001      44.002249999999997
    26   4                 13.2475      24.602499999999999      46.380749999999999
    27   5                  11.355      22.710000000000001                   47.57
    28   5                 13.2475      24.602499999999999      49.948500000000003
    29   4                 13.2475      22.710000000000001      53.516249999999999
    30   4                  11.355      22.710000000000001      48.759250000000002
    31   4      17.032499999999999      9.4625000000000004      46.380749999999999
    32   5      17.032499999999999      9.4625000000000004      49.948500000000003
    33   5      17.032499999999999                 13.2475                 40.4345
    34   4      17.032499999999999                  11.355      44.002249999999997
    35   4      15.140000000000001                 13.2475      44.002249999999997
    36   4      17.032499999999999                 13.2475      46.380749999999999
    37   5      15.140000000000001                  11.355                   47.57
    38   5      17.032499999999999                 13.2475      49.948500000000003
    39   4      17.032499999999999                  11.355      53.516249999999999
    40   4      15.140000000000001                 13.2475      53.516249999999999
    41   4      15.140000000000001                  11.355      48.759250000000002
    42   5      17.032499999999999      17.032499999999999                 40.4345
    43   4      17.032499999999999      15.140000000000001      44.002249999999997
    44   4      15.140000000000001      17.032499999999999      44.002249999999997
    45   4      17.032499999999999      17.032499999999999      46.380749999999999
    46   4      15.140000000000001      15.140000000000001      39.245249999999999
    47   5      15.140000000000001      15.140000000000001                   47.57
    48   5      17.032499999999999      17.032499999999999      49.948500000000003
    49   4      17.032499999999999      15.140000000000001      53.516249999999999
    50   4      15.140000000000001      17.032499999999999      53.516249999999999
    51   4      17.032499999999999      17.032499999999999      55.894750000000002
    52   4      15.140000000000001      15.140000000000001      48.759250000000002
    53   5      17.032499999999999      20.817499999999999                 40.4345
    54   4      17.032499999999999      18.925000000000001      44.002249999999997
    55   4      15.140000000000001      20.817499999999999      44.002249999999997
    56   4      17.032499999999999      20.817499999999999      46.380749999999999
    57   4      15.140000000000001      18.925000000000001      39.245249999999999
    58   5      15.140000000000001      18.925000000000001                   47.57
    59   5      17.032499999999999      20.817499999999999      49.948500000000003
    60   4      17.032499999999999      18.925000000000001      53.516249999999999
    61   4      15.140000000000001      20.817499999999999      53.516249999999999
    62   4      17.032499999999999      20.817499999999999      55.894750000000002
    63   4      15.140000000000001      18.925000000000001      48.759250000000002
    64   5      17.032499999999999      24.602499999999999                 40.4345
    65   4      17.032499999999999      22.710000000000001      44.002249999999997
    66   4      15.140000000000001      24.602499999999999      44.002249999999997
    67   4      17.032499999999999      24.602499999999999      46.380749999999999
    68   4      15.140000000000001      22.710000000000001      39.245249999999999
    69   5      15.140000000000001      22.710000000000001                   47.57
    70   5      17.032499999999999      24.602499999999999      49.948500000000003
    71   4      17.032499999999999      22.710000000000001      53.516249999999999
    72   4      15.140000000000001      24.602499999999999      53.516249999999999
    73   4      15.140000000000001      22.710000000000001      48.759250000000002
    74   4      17.032499999999999      26.495000000000001      44.002249999999997
    75   4      17.032499999999999      28.387499999999999      46.380749999999999
    76   5      15.140000000000001      26.495000000000001                   47.57
    77   5      17.032499999999999      28.387499999999999      49.948500000000003
    78   4      17.032499999999999      26.495000000000001      53.516249999999999
    79   4      15.140000000000001      26.495000000000001      48.759250000000002
    80   4      20.817499999999999      9.4625000000000004      46.380749999999999
    81   5      20.817499999999999      9.4625000000000004      49.948500000000003
    82   5      20.817499999999999                 13.2475                 40.4345
    83   4      20.817499999999999                  11.355      44.002249999999997
    84   4      18.925000000000001                 13.2475      44.002249999999997
    85   4      20.817499999999999                 13.2475      46.380749999999999
    86   5      18.925000000000001                  11.355                   47.57
    87   5      20.817499999999999                 13.2475      49.948500000000003
    88   4      20.817499999999999                  11.355      53.516249999999999
    89   4      18.925000000000001                 13.2475      53.516249999999999
    90   4      18.925000000000001                  11.355      48.759250000000002
    91   5      20.817499999999999      17.032499999999999                 40.4345
    92   4      20.817499999999999      15.140000000000001      44.002249999999997
    93   4      18.925000000000001      17.032499999999999      44.002249999999997
    94   4      20.817499999999999      17.032499999999999      46.380749999999999
    95   4      18.925000000000001      15.140000000000001      39.245249999999999
    96   5      18.925000000000001      15.140000000000001                   47.57
    97   5      20.817499999999999      17.032499999999999      49.948500000000003
    98   4      20.817499999999999      15.140000000000001      53.516249999999999
    99   4      18.925000000000001      17.032499999999999      53.516249999999999
   100   4      20.817499999999999      17.032499999999999      55.894750000000002
   101   4      18.925000000000001      15.140000000000001      48.759250000000002
   102   5      18.925000000000001      18.925000000000001      38.055999999999997
   103   5      20.817499999999999      20.817499999999999                 40.4345
   104   4      20.817499999999999      18.925000000000001      44.002249999999997
   105   4      18.925000000000001      20.817499999999999      44.002249999999997
   106   4      20.817499999999999      20.817499999999999      46.380749999999999
   107   4      18.925000000000001      18.925000000000001      39.245249999999999
   108   5      18.925000000000001      18.925000000000001                   47.57
   109   5      20.817499999999999      20.817499999999999      49.948500000000003
   110   4      20.817499999999999      18.925000000000001      53.516249999999999
   111   4      18.925000000000001      20.817499999999999      53.516249999999999
   112   4      20.817499999999999      20.817499999999999      55.894750000000002
   113   4      18.925000000000001      18.925000000000001      48.759250000000002
   114   5      18.925000000000001      18.925000000000001      57.084000000000003
   115   5      20.817499999999999      24.602499999999999                 40.4345
   116   4      20.817499999999999      22.710000000000001      44.002249999999997
   117   4      18.925000000000001      24.602499999999999      44.002249999999997
   118   4      20.817499999999999      24.602499999999999      46.380749999999999
   119   4      18.925000000000001      22.710000000000001      39.245249999999999
   120   5      18.925000000000001      22.710000000000001                   47.57
   121   5      20.817499999999999      24.602499999999999      49.948500000000003
   122   4      20.817499999999999      22.710000000000001      53.516249999999999
   123   4      18.925000000000001      24.602499999999999      53.516249999999999
   124   4      18.925000000000001      22.710000000000001      48.759250000000002
   125   4      20.817499999999999      26.495000000000001      44.002249999999997
   126   4      20.817499999999999      28.387499999999999      46.380749999999999
   127   5      18.925000000000001      26.495000000000001                   47.57
   128   5      20.817499999999999      28.387499999999999      49.948500000000003
   129   4      20.817499999999999      26.495000000000001      53.516249999999999
   130   4      18.925000000000001      26.495000000000001      48.759250000000002
   131   4      22.710000000000001                 13.2475      44.002249999999997
   132   4      24.602499999999999                 13.2475      46.380749999999999
   133   5      22.710000000000001                  11.355                   47.57
   134   5      24.602499999999999                 13.2475      49.948500000000003
   135   4      22.710000000000001                 13.2475      53.516249999999999
   136   4      22.710000000000001                  11.355      48.759250000000002
   137   5      24.602499999999999      17.032499999999999                 40.4345
   138   4      24.602499999999999      15.140000000000001      44.002249999999997
   139   4      22.710000000000001      17.032499999999999      44.002249999999997
   140   4      24.602499999999999      17.032499999999999      46.380749999999999
   141   4      22.710000000000001      15.140000000000001      39.245249999999999
   142   5      22.710000000000001      15.140000000000001                   47.57
   143   5      24.602499999999999      17.032499999999999      49.948500000000003
   144   4      24.602499999999999      15.140000000000001      53.516249999999999
   145   4      22.710000000000001      17.032499999999999      53.516249999999999
   146   4      22.710000000000001      15.140000000000001      48.759250000000002
   147   5      24.602499999999999      20.817499999999999                 40.4345
   148   4      24.602499999999999      18.925000000000001      44.002249999999997
   149   4      22.710000000000001      20.817499999999999      44.002249999999997
   150   4      24.602499999999999      20.817499999999999      46.380749999999999
   151   4      22.710000000000001      18.925000000000001      39.245249999999999
   152   5      22.710000000000001      18.925000000000001                   47.57
   153   2      24.602499999999999      20.817499999999999      49.948500000000003
   154   4      24.602499999999999      18.925000000000001      53.516249999999999
   155   4      22.710000000000001      20.817499999999999      53.516249999999999
   156   4      22.710000000000001      18.925000000000001      48.759250000000002
   157   4      24.602499999999999      22.710000000000001      44.002249999999997
   158   4      22.710000000000001      24.602499999999999      44.002249999999997
   159   4      24.602499999999999      24.602499999999999      46.380749999999999
   160   4      22.710000000000001      22.710000000000001      39.245249999999999
   161   5      22.710000000000001      22.710000000000001                   47.57
   162   5      24.602499999999999      24.602499999999999      49.948500000000003
   163   4      24.602499999999999      22.710000000000001      53.516249999999999
   164   4      22.710000000000001      24.602499999999999      53.516249999999999
   165   4      22.710000000000001      22.710000000000001      48.759250000000002
   166   5      22.710000000000001      26.495000000000001                   47.57
   167   4      22.710000000000001      26.495000000000001      48.759250000000002
   168   4      26.495000000000001      17.032499999999999      44.002249999999997
   169   4      28.387499999999999      17.032499999999999      46.380749999999999
   170   5      26.495000000000001      15.140000000000001                   47.57
   171   5      28.387499999999999      17.032499999999999      49.948500000000003
   172   4      26.495000000000001      17.032499999999999      53.516249999999999
   173   4      26.495000000000001      15.140000000000001      48.759250000000002
   174   4      26.495000000000001      20.817499999999999      44.002249999999997
   175   4      28.387499999999999      20.817499999999999      46.380749999999999
   176   5      26.495000000000001      18.925000000000001                   47.57
   177   5      28.387499999999999      20.817499999999999      49.948500000000003
   178   4      26.495000000000001      20.817499999999999      53.516249999999999
   179   4      26.495000000000001      18.925000000000001      48.759250000000002
   180   5      26.495000000000001      22.710000000000001                   47.57
   181   4      26.495000000000001      22.710000000000001      48.759250000000002
   182   1      18.925000000000011      18.924999999999997      62.084000000000003
   183   3      20.015000000000011      18.924999999999997      62.084000000000003
   184   3      18.562000000000012      19.944999999999997      62.084000000000003
   185   3      18.562000000000012      18.414999999999996      62.974000000000004
   186   3      18.562000000000012      18.414999999999996      61.194000000000003
